 Gaussian 09, Revision D.01,
 Gaussian 09:  AM64L-G09RevD.01 24-Apr-2013

 -----------------------------------------
 #P HF/GEN SP pop=full iop(3/33=4) gfinput
 -----------------------------------------

 ---------------------
 Calcul STO-3G pour H2
 ---------------------
 Symbolic Z-matrix:
 Charge =  0 Multiplicity = 1

                         Standard orientation:
 ---------------------------------------------------------------------
 Center     Atomic      Atomic             Coordinates (Angstroms)
 Number     Number       Type             X           Y           Z
 ---------------------------------------------------------------------
      1          1           0        0.000000    0.000000    0.370424
      2          1           0        0.000000    0.000000   -0.370424
 ---------------------------------------------------------------------

 SCF Done:  E(RHF) =  -1.11671432500     A.U. after    1 cycles

 The electronic state is 1-SGG.
 Alpha  occ. eigenvalues --   -0.57820
 Alpha virt. eigenvalues --    0.67027

 Mulliken charges:
               1
     1  H    0.000000
     2  H    0.000000
 Sum of Mulliken charges =   0.00000

 Dipole moment (field-independent basis, Debye):
    X=              0.0000    Y=              0.0000    Z=              0.0000  Tot=              0.0000
 Quadrupole moment (field-independent basis, Debye-Ang):
   XX=             -1.8477   YY=             -1.8477   ZZ=             -1.4267
   XY=              0.0000   XZ=             -0.0000   YZ=              0.0000

 Normal termination of Gaussian 09 at Thu May 11 14:00:14 2023.
