 Gaussian 09, Revision D.01,
 Gaussian 09:  AM64L-G09RevD.01 24-Apr-2013

 -----------------------------------------
 #P HF/GEN SP pop=full iop(3/33=4) gfinput
 -----------------------------------------

 ---------------------
 Calcul STO-3G pour H2
 ---------------------
 Symbolic Z-matrix:
 Charge =  1 Multiplicity = 1

                         Standard orientation:
 ---------------------------------------------------------------------
 Center     Atomic      Atomic             Coordinates (Angstroms)
 Number     Number       Type             X           Y           Z
 ---------------------------------------------------------------------
      1          2           0        0.000000    0.000000    0.258097
      2          1           0        0.000000    0.000000   -0.516195
 ---------------------------------------------------------------------

 SCF Done:  E(RHF) =  -2.86065860884     A.U. after    5 cycles

 The electronic state is 1-SG.
 Alpha  occ. eigenvalues --   -1.59745
 Alpha virt. eigenvalues --   -0.06167

 Mulliken charges:
               1
     1  He   0.470365
     2  H    0.529635
 Sum of Mulliken charges =   1.00000

 Dipole moment (field-independent basis, Debye):
    X=              0.0000    Y=              0.0000    Z=             -1.0199  Tot=              1.0199
 Quadrupole moment (field-independent basis, Debye-Ang):
   XX=             -0.8763   YY=             -0.8763   ZZ=              0.2830
   XY=              0.0000   XZ=              0.0000   YZ=              0.0000

 Normal termination of Gaussian 09 at Thu May 11 16:39:07 2023.
